LAMMPS data file from restart file: timestep = 0, procs = 1

500 atoms
500 bonds
500 angles

4 atom types
1 bond types
1 angle types

-80 80 xlo xhi 
-80 80 ylo yhi 
-80 80 zlo zhi 

Masses 

 1 1 
 2 1 
 3 1 
 4 1 

Atoms 

1 1 1 37.5 0 -0 0 0 0 
2 1 1 37.4438 1.88372 -0.471127 0 0 0 
3 1 1 37.2753 3.76 -0.941585 0 0 0 
4 1 1 36.9955 5.62146 -1.4107 0 0 0 
5 1 1 36.6056 7.46079 -1.87782 0 0 0 
6 1 1 36.1074 9.27081 -2.34227 0 0 0 
7 1 1 35.5034 11.0445 -2.80338 0 0 0 
8 1 1 34.7963 12.775 -3.26052 0 0 0 
9 1 1 33.9895 14.4557 -3.71302 0 0 0 
10 1 1 33.0868 16.0803 -4.16024 0 0 0 
11 1 1 32.0923 17.6429 -4.60156 0 0 0 
12 1 1 31.0107 19.1376 -5.03633 0 0 0 
13 1 1 29.8469 20.5593 -5.46395 0 0 0 
14 1 1 28.6064 21.9029 -5.8838 0 0 0 
15 1 1 27.2947 23.164 -6.29529 0 0 0 
16 1 1 25.9178 24.3385 -6.69783 0 0 0 
17 1 1 24.4819 25.4227 -7.09086 0 0 0 
18 1 1 22.9934 26.4136 -7.47381 0 0 0 
19 1 1 21.4587 27.3084 -7.84614 0 0 0 
20 1 1 19.8848 28.105 -8.20732 0 0 0 
21 1 1 18.2782 28.8018 -8.55684 0 0 0 
22 1 1 16.6459 29.3975 -8.8942 0 0 0 
23 1 1 14.9947 29.8915 -9.21891 0 0 0 
24 1 1 13.3314 30.2837 -9.53053 0 0 0 
25 1 1 11.663 30.5743 -9.82861 0 0 0 
26 1 1 9.99587 30.7641 -10.1127 0 0 0 
27 1 1 8.33674 30.8545 -10.3824 0 0 0 
28 1 1 6.69194 30.8472 -10.6374 0 0 0 
29 1 1 5.06763 30.7442 -10.8773 0 0 0 
30 1 1 3.46974 30.5483 -11.1017 0 0 0 
31 1 1 1.90395 30.2624 -11.3103 0 0 0 
32 1 1 0.375626 29.8898 -11.5029 0 0 0 
33 1 1 -1.11017 29.4342 -11.6791 0 0 0 
34 1 1 -2.54872 28.8996 -11.8387 0 0 0 
35 1 1 -3.93567 28.2903 -11.9815 0 0 0 
36 1 1 -5.26703 27.6107 -12.1073 0 0 0 
37 1 1 -6.53922 26.8657 -12.2159 0 0 0 
38 1 1 -7.74904 26.0601 -12.3071 0 0 0 
39 1 1 -8.89373 25.199 -12.3808 0 0 0 
40 1 1 -9.97092 24.2875 -12.4369 0 0 0 
41 1 1 -10.9787 23.3309 -12.4753 0 0 0 
42 1 1 -11.9155 22.3344 -12.4961 0 0 0 
43 1 1 -12.7802 21.3035 -12.499 0 0 0 
44 1 1 -13.5721 20.2432 -12.4842 0 0 0 
45 1 1 -14.291 19.1589 -12.4517 0 0 0 
46 1 1 -14.937 18.0557 -12.4014 0 0 0 
47 1 1 -15.5104 16.9385 -12.3336 0 0 0 
48 1 1 -16.0121 15.8122 -12.2482 0 0 0 
49 1 1 -16.4433 14.6814 -12.1454 0 0 0 
50 1 1 -16.8055 13.5507 -12.0253 0 0 0 
51 1 1 -17.1004 12.4242 -11.8882 0 0 0 
52 1 1 -17.3301 11.306 -11.7342 0 0 0 
53 1 1 -17.4968 10.1998 -11.5635 0 0 0 
54 1 1 -17.6031 9.10901 -11.3763 0 0 0 
55 1 1 -17.6517 8.0369 -11.173 0 0 0 
56 1 1 -17.6454 6.9863 -10.9538 0 0 0 
57 1 1 -17.5871 5.95976 -10.7191 0 0 0 
58 1 1 -17.4801 4.95956 -10.4691 0 0 0 
59 1 1 -17.3274 3.98761 -10.2042 0 0 0 
60 1 1 -17.1323 3.04555 -9.92488 0 0 0 
61 1 1 -16.8979 2.1347 -9.63142 0 0 0 
62 1 1 -16.6275 1.25606 -9.32426 0 0 0 
63 1 1 -16.3242 0.410358 -9.00386 0 0 0 
64 1 1 -15.9911 -0.401984 -8.67067 0 0 0 
65 1 1 -15.6312 -1.1808 -8.32515 0 0 0 
66 1 1 -15.2474 -1.92619 -7.9678 0 0 0 
67 1 1 -14.8424 -2.63849 -7.59913 0 0 0 
68 1 1 -14.4189 -3.31826 -7.21966 0 0 0 
69 1 1 -13.9791 -3.96624 -6.82993 0 0 0 
70 1 1 -13.5254 -4.58337 -6.43049 0 0 0 
71 1 1 -13.0598 -5.17074 -6.02192 0 0 0 
72 1 1 -12.584 -5.72956 -5.60479 0 0 0 
73 1 1 -12.0997 -6.26117 -5.17969 0 0 0 
74 1 1 -11.6081 -6.76695 -4.74724 0 0 0 
75 1 1 -11.1105 -7.24837 -4.30804 0 0 0 
76 1 1 -10.6077 -7.70692 -3.86271 0 0 0 
77 1 1 -10.1003 -8.14408 -3.4119 0 0 0 
78 1 1 -9.58878 -8.56132 -2.95624 0 0 0 
79 1 1 -9.07337 -8.96006 -2.49637 0 0 0 
80 1 1 -8.55405 -9.34166 -2.03296 0 0 0 
81 1 1 -8.03063 -9.70736 -1.56667 0 0 0 
82 1 1 -7.50271 -10.0583 -1.09814 0 0 0 
83 1 1 -6.96974 -10.3956 -0.628054 0 0 0 
84 1 1 -6.431 -10.7199 -0.157075 0 0 0 
85 1 1 -5.88566 -11.0321 0.314126 0 0 0 
86 1 1 -5.33274 -11.3327 0.784881 0 0 0 
87 1 1 -4.77121 -11.6218 1.25452 0 0 0 
88 1 1 -4.19993 -11.8998 1.72238 0 0 0 
89 1 1 -3.61773 -12.1665 2.18779 0 0 0 
90 1 1 -3.02344 -12.4215 2.65009 0 0 0 
91 1 1 -2.41585 -12.6643 3.10862 0 0 0 
92 1 1 -1.79382 -12.8943 3.56274 0 0 0 
93 1 1 -1.15623 -13.1104 4.0118 0 0 0 
94 1 1 -0.502067 -13.3114 4.45515 0 0 0 
95 1 1 0.169605 -13.496 4.89217 0 0 0 
96 1 1 0.859581 -13.6626 5.32224 0 0 0 
97 1 1 1.56851 -13.8095 5.74475 0 0 0 
98 1 1 2.29688 -13.9347 6.15909 0 0 0 
99 1 1 3.04497 -14.0361 6.56468 0 0 0 
100 1 1 3.81286 -14.1115 6.96095 0 0 0 
101 1 1 4.60042 -14.1587 7.34732 0 0 0 
102 1 1 5.40727 -14.1751 7.72325 0 0 0 
103 1 1 6.23275 -14.1583 8.0882 0 0 0 
104 1 1 7.07597 -14.1058 8.44166 0 0 0 
105 1 1 7.93577 -14.015 8.78312 0 0 0 
106 1 1 8.81069 -13.8834 9.11211 0 0 0 
107 1 1 9.69899 -13.7085 9.42814 0 0 0 
108 1 1 10.5987 -13.4879 9.73078 0 0 0 
109 1 1 11.5074 -13.2192 10.0196 0 0 0 
110 1 1 12.4227 -12.9001 10.2942 0 0 0 
111 1 1 13.3417 -12.5287 10.5541 0 0 0 
112 1 1 14.2613 -12.103 10.799 0 0 0 
113 1 1 15.1781 -11.6213 11.0286 0 0 0 
114 1 1 16.0886 -11.0822 11.2426 0 0 0 
115 1 1 16.989 -10.4844 11.4405 0 0 0 
116 1 1 17.8753 -9.82702 11.6222 0 0 0 
117 1 1 18.7434 -9.10939 11.7874 0 0 0 
118 1 1 19.589 -8.33116 11.9358 0 0 0 
119 1 1 20.4076 -7.49236 12.0673 0 0 0 
120 1 1 21.1948 -6.59332 12.1816 0 0 0 
121 1 1 21.9459 -5.63475 12.2786 0 0 0 
122 1 1 22.6564 -4.61773 12.3581 0 0 0 
123 1 1 23.3216 -3.54372 12.4201 0 0 0 
124 1 1 23.9369 -2.41454 12.4645 0 0 0 
125 1 1 24.4979 -1.23244 12.4911 0 0 0 
126 1 1 25 -6.12323e-15 12.5 0 0 0 
127 1 1 25.439 1.27978 12.4911 0 0 0 
128 1 1 25.8106 2.60354 12.4645 0 0 0 
129 1 1 26.111 3.96756 12.4201 0 0 0 
130 1 1 26.3364 5.36777 12.3581 0 0 0 
131 1 1 26.4833 6.79975 12.2786 0 0 0 
132 1 1 26.5485 8.25876 12.1816 0 0 0 
133 1 1 26.5291 9.73979 12.0673 0 0 0 
134 1 1 26.4226 11.2375 11.9358 0 0 0 
135 1 1 26.2269 12.7464 11.7874 0 0 0 
136 1 1 25.94 14.2607 11.6222 0 0 0 
137 1 1 25.5608 15.7743 11.4405 0 0 0 
138 1 1 25.0881 17.2813 11.2426 0 0 0 
139 1 1 24.5214 18.7752 11.0286 0 0 0 
140 1 1 23.8609 20.2498 10.799 0 0 0 
141 1 1 23.1067 21.6987 10.5541 0 0 0 
142 1 1 22.2599 23.1153 10.2942 0 0 0 
143 1 1 21.3218 24.4934 10.0196 0 0 0 
144 1 1 20.2943 25.8265 9.73078 0 0 0 
145 1 1 19.1796 27.1084 9.42814 0 0 0 
146 1 1 17.9807 28.333 9.11211 0 0 0 
147 1 1 16.7006 29.4942 8.78312 0 0 0 
148 1 1 15.3432 30.5863 8.44166 0 0 0 
149 1 1 13.9126 31.6038 8.0882 0 0 0 
150 1 1 12.4133 32.5414 7.72325 0 0 0 
151 1 1 10.8504 33.3942 7.34732 0 0 0 
152 1 1 9.22921 34.1576 6.96095 0 0 0 
153 1 1 7.55539 34.8273 6.56468 0 0 0 
154 1 1 5.83498 35.3996 6.15909 0 0 0 
155 1 1 4.07431 35.8711 5.74475 0 0 0 
156 1 1 2.27994 36.2387 5.32224 0 0 0 
157 1 1 0.458697 36.5 4.89217 0 0 0 
158 1 1 -1.38244 36.6531 4.45515 0 0 0 
159 1 1 -3.23633 36.6963 4.0118 0 0 0 
160 1 1 -5.09569 36.6288 3.56274 0 0 0 
161 1 1 -6.95321 36.45 3.10862 0 0 0 
162 1 1 -8.80151 36.1601 2.65009 0 0 0 
163 1 1 -10.6332 35.7596 2.18779 0 0 0 
164 1 1 -12.4411 35.2497 1.72238 0 0 0 
165 1 1 -14.2177 34.632 1.25452 0 0 0 
166 1 1 -15.9562 33.9087 0.784881 0 0 0 
167 1 1 -17.6495 33.0824 0.314126 0 0 0 
168 1 1 -19.291 32.1564 -0.157075 0 0 0 
169 1 1 -20.874 31.1342 -0.628054 0 0 0 
170 1 1 -22.3925 30.02 -1.09814 0 0 0 
171 1 1 -23.8406 28.8183 -1.56667 0 0 0 
172 1 1 -25.2126 27.534 -2.03296 0 0 0 
173 1 1 -26.5034 26.1724 -2.49637 0 0 0 
174 1 1 -27.7083 24.7393 -2.95624 0 0 0 
175 1 1 -28.8228 23.2405 -3.4119 0 0 0 
176 1 1 -29.8432 21.6823 -3.86271 0 0 0 
177 1 1 -30.7659 20.0713 -4.30804 0 0 0 
178 1 1 -31.588 18.4142 -4.74724 0 0 0 
179 1 1 -32.3071 16.7178 -5.17969 0 0 0 
180 1 1 -32.9213 14.9892 -5.60479 0 0 0 
181 1 1 -33.429 13.2355 -6.02192 0 0 0 
182 1 1 -33.8295 11.4638 -6.43049 0 0 0 
183 1 1 -34.1223 9.68136 -6.82993 0 0 0 
184 1 1 -34.3075 7.89528 -7.21966 0 0 0 
185 1 1 -34.3858 6.11266 -7.59913 0 0 0 
186 1 1 -34.3583 4.34047 -7.9678 0 0 0 
187 1 1 -34.2267 2.58554 -8.32515 0 0 0 
188 1 1 -33.9931 0.85452 -8.67067 0 0 0 
189 1 1 -33.66 -0.846147 -9.00386 0 0 0 
190 1 1 -33.2305 -2.51028 -9.32426 0 0 0 
191 1 1 -32.7078 -4.13196 -9.63142 0 0 0 
192 1 1 -32.0959 -5.7056 -9.92488 0 0 0 
193 1 1 -31.3989 -7.22593 -10.2042 0 0 0 
194 1 1 -30.6213 -8.68804 -10.4691 0 0 0 
195 1 1 -29.7678 -10.0874 -10.7191 0 0 0 
196 1 1 -28.8435 -11.4199 -10.9538 0 0 0 
197 1 1 -27.8536 -12.6819 -11.173 0 0 0 
198 1 1 -26.8037 -13.87 -11.3763 0 0 0 
199 1 1 -25.6993 -14.9814 -11.5635 0 0 0 
200 1 1 -24.5463 -16.0137 -11.7342 0 0 0 
201 1 1 -23.3504 -16.9651 -11.8882 0 0 0 
202 1 1 -22.1176 -17.8339 -12.0253 0 0 0 
203 1 1 -20.8537 -18.6192 -12.1454 0 0 0 
204 1 1 -19.5647 -19.3203 -12.2482 0 0 0 
205 1 1 -18.2562 -19.9372 -12.3336 0 0 0 
206 1 1 -16.9342 -20.47 -12.4014 0 0 0 
207 1 1 -15.6042 -20.9194 -12.4517 0 0 0 
208 1 1 -14.2716 -21.2866 -12.4842 0 0 0 
209 1 1 -12.9418 -21.5729 -12.499 0 0 0 
210 1 1 -11.6197 -21.7801 -12.4961 0 0 0 
211 1 1 -10.3103 -21.9105 -12.4753 0 0 0 
212 1 1 -9.01804 -21.9664 -12.4369 0 0 0 
213 1 1 -7.74725 -21.9506 -12.3808 0 0 0 
214 1 1 -6.50192 -21.866 -12.3071 0 0 0 
215 1 1 -5.28573 -21.7159 -12.2159 0 0 0 
216 1 1 -4.10203 -21.5036 -12.1073 0 0 0 
217 1 1 -2.95385 -21.2328 -11.9815 0 0 0 
218 1 1 -1.84384 -20.9071 -11.8387 0 0 0 
219 1 1 -0.774339 -20.5303 -11.6791 0 0 0 
220 1 1 0.252676 -20.1062 -11.5029 0 0 0 
221 1 1 1.23558 -19.6389 -11.3103 0 0 0 
222 1 1 2.17308 -19.1322 -11.1017 0 0 0 
223 1 1 3.06423 -18.5901 -10.8773 0 0 0 
224 1 1 3.90842 -18.0162 -10.6374 0 0 0 
225 1 1 4.70533 -17.4146 -10.3824 0 0 0 
226 1 1 5.45498 -16.7887 -10.1127 0 0 0 
227 1 1 6.15764 -16.1422 -9.82861 0 0 0 
228 1 1 6.81387 -15.4784 -9.53053 0 0 0 
229 1 1 7.42448 -14.8005 -9.21891 0 0 0 
230 1 1 7.9905 -14.1117 -8.8942 0 0 0 
231 1 1 8.51316 -13.4146 -8.55684 0 0 0 
232 1 1 8.99388 -12.7119 -8.20732 0 0 0 
233 1 1 9.43424 -12.006 -7.84614 0 0 0 
234 1 1 9.83593 -11.299 -7.47381 0 0 0 
235 1 1 10.2008 -10.5928 -7.09086 0 0 0 
236 1 1 10.5306 -9.8889 -6.69783 0 0 0 
237 1 1 10.8274 -9.18881 -6.29529 0 0 0 
238 1 1 11.0931 -8.49361 -5.8838 0 0 0 
239 1 1 11.3297 -7.80417 -5.46395 0 0 0 
240 1 1 11.539 -7.1211 -5.03633 0 0 0 
241 1 1 11.7231 -6.4448 -4.60156 0 0 0 
242 1 1 11.8835 -5.77544 -4.16024 0 0 0 
243 1 1 12.0221 -5.11298 -3.71302 0 0 0 
244 1 1 12.1404 -4.45717 -3.26052 0 0 0 
245 1 1 12.2398 -3.8076 -2.80338 0 0 0 
246 1 1 12.3217 -3.16369 -2.34227 0 0 0 
247 1 1 12.3872 -2.5247 -1.87782 0 0 0 
248 1 1 12.4371 -1.88982 -1.4107 0 0 0 
249 1 1 12.4722 -1.25809 -0.941585 0 0 0 
250 1 1 12.4931 -0.6285 -0.471127 0 0 0 
251 1 1 12.5 -6.12323e-15 -4.59243e-15 0 0 0 
252 1 1 12.4931 0.6285 0.471127 0 0 0 
253 1 1 12.4722 1.25809 0.941585 0 0 0 
254 1 1 12.4371 1.88982 1.4107 0 0 0 
255 1 1 12.3872 2.5247 1.87782 0 0 0 
256 1 1 12.3217 3.16369 2.34227 0 0 0 
257 1 1 12.2398 3.8076 2.80338 0 0 0 
258 1 1 12.1404 4.45717 3.26052 0 0 0 
259 1 1 12.0221 5.11298 3.71302 0 0 0 
260 1 1 11.8835 5.77544 4.16024 0 0 0 
261 1 1 11.7231 6.4448 4.60156 0 0 0 
262 1 1 11.539 7.1211 5.03633 0 0 0 
263 1 1 11.3297 7.80417 5.46395 0 0 0 
264 1 1 11.0931 8.49361 5.8838 0 0 0 
265 1 1 10.8274 9.18881 6.29529 0 0 0 
266 1 1 10.5306 9.8889 6.69783 0 0 0 
267 1 1 10.2008 10.5928 7.09086 0 0 0 
268 1 1 9.83593 11.299 7.47381 0 0 0 
269 1 1 9.43424 12.006 7.84614 0 0 0 
270 1 1 8.99388 12.7119 8.20732 0 0 0 
271 1 1 8.51316 13.4146 8.55684 0 0 0 
272 1 1 7.9905 14.1117 8.8942 0 0 0 
273 1 1 7.42448 14.8005 9.21891 0 0 0 
274 1 1 6.81387 15.4784 9.53053 0 0 0 
275 1 1 6.15764 16.1422 9.82861 0 0 0 
276 1 1 5.45498 16.7887 10.1127 0 0 0 
277 1 1 4.70533 17.4146 10.3824 0 0 0 
278 1 1 3.90842 18.0162 10.6374 0 0 0 
279 1 1 3.06423 18.5901 10.8773 0 0 0 
280 1 1 2.17308 19.1322 11.1017 0 0 0 
281 1 1 1.23558 19.6389 11.3103 0 0 0 
282 1 1 0.252676 20.1062 11.5029 0 0 0 
283 1 1 -0.774339 20.5303 11.6791 0 0 0 
284 1 1 -1.84384 20.9071 11.8387 0 0 0 
285 1 1 -2.95385 21.2328 11.9815 0 0 0 
286 1 1 -4.10203 21.5036 12.1073 0 0 0 
287 1 1 -5.28573 21.7159 12.2159 0 0 0 
288 1 1 -6.50192 21.866 12.3071 0 0 0 
289 1 1 -7.74725 21.9506 12.3808 0 0 0 
290 1 1 -9.01804 21.9664 12.4369 0 0 0 
291 1 1 -10.3103 21.9105 12.4753 0 0 0 
292 1 1 -11.6197 21.7801 12.4961 0 0 0 
293 1 1 -12.9418 21.5729 12.499 0 0 0 
294 1 1 -14.2716 21.2866 12.4842 0 0 0 
295 1 1 -15.6042 20.9194 12.4517 0 0 0 
296 1 1 -16.9342 20.47 12.4014 0 0 0 
297 1 1 -18.2562 19.9372 12.3336 0 0 0 
298 1 1 -19.5647 19.3203 12.2482 0 0 0 
299 1 1 -20.8537 18.6192 12.1454 0 0 0 
300 1 1 -22.1176 17.8339 12.0253 0 0 0 
301 1 1 -23.3504 16.9651 11.8882 0 0 0 
302 1 1 -24.5463 16.0137 11.7342 0 0 0 
303 1 1 -25.6993 14.9814 11.5635 0 0 0 
304 1 1 -26.8037 13.87 11.3763 0 0 0 
305 1 1 -27.8536 12.6819 11.173 0 0 0 
306 1 1 -28.8435 11.4199 10.9538 0 0 0 
307 1 1 -29.7678 10.0874 10.7191 0 0 0 
308 1 1 -30.6213 8.68804 10.4691 0 0 0 
309 1 1 -31.3989 7.22593 10.2042 0 0 0 
310 1 1 -32.0959 5.7056 9.92488 0 0 0 
311 1 1 -32.7078 4.13196 9.63142 0 0 0 
312 1 1 -33.2305 2.51028 9.32426 0 0 0 
313 1 1 -33.66 0.846147 9.00386 0 0 0 
314 1 1 -33.9931 -0.85452 8.67067 0 0 0 
315 1 1 -34.2267 -2.58554 8.32515 0 0 0 
316 1 1 -34.3583 -4.34047 7.9678 0 0 0 
317 1 1 -34.3858 -6.11266 7.59913 0 0 0 
318 1 1 -34.3075 -7.89528 7.21966 0 0 0 
319 1 1 -34.1223 -9.68136 6.82993 0 0 0 
320 1 1 -33.8295 -11.4638 6.43049 0 0 0 
321 1 1 -33.429 -13.2355 6.02192 0 0 0 
322 1 1 -32.9213 -14.9892 5.60479 0 0 0 
323 1 1 -32.3071 -16.7178 5.17969 0 0 0 
324 1 1 -31.588 -18.4142 4.74724 0 0 0 
325 1 1 -30.7659 -20.0713 4.30804 0 0 0 
326 1 1 -29.8432 -21.6823 3.86271 0 0 0 
327 1 1 -28.8228 -23.2405 3.4119 0 0 0 
328 1 1 -27.7083 -24.7393 2.95624 0 0 0 
329 1 1 -26.5034 -26.1724 2.49637 0 0 0 
330 1 1 -25.2126 -27.534 2.03296 0 0 0 
331 1 1 -23.8406 -28.8183 1.56667 0 0 0 
332 1 1 -22.3925 -30.02 1.09814 0 0 0 
333 1 1 -20.874 -31.1342 0.628054 0 0 0 
334 1 1 -19.291 -32.1564 0.157075 0 0 0 
335 1 1 -17.6495 -33.0824 -0.314126 0 0 0 
336 1 1 -15.9562 -33.9087 -0.784881 0 0 0 
337 1 1 -14.2177 -34.632 -1.25452 0 0 0 
338 1 1 -12.4411 -35.2497 -1.72238 0 0 0 
339 1 1 -10.6332 -35.7596 -2.18779 0 0 0 
340 1 1 -8.80151 -36.1601 -2.65009 0 0 0 
341 1 1 -6.95321 -36.45 -3.10862 0 0 0 
342 1 1 -5.09569 -36.6288 -3.56274 0 0 0 
343 1 1 -3.23633 -36.6963 -4.0118 0 0 0 
344 1 1 -1.38244 -36.6531 -4.45515 0 0 0 
345 1 1 0.458697 -36.5 -4.89217 0 0 0 
346 1 1 2.27994 -36.2387 -5.32224 0 0 0 
347 1 1 4.07431 -35.8711 -5.74475 0 0 0 
348 1 1 5.83498 -35.3996 -6.15909 0 0 0 
349 1 1 7.55539 -34.8273 -6.56468 0 0 0 
350 1 1 9.22921 -34.1576 -6.96095 0 0 0 
351 1 1 10.8504 -33.3942 -7.34732 0 0 0 
352 1 1 12.4133 -32.5414 -7.72325 0 0 0 
353 1 1 13.9126 -31.6038 -8.0882 0 0 0 
354 1 1 15.3432 -30.5863 -8.44166 0 0 0 
355 1 1 16.7006 -29.4942 -8.78312 0 0 0 
356 1 1 17.9807 -28.333 -9.11211 0 0 0 
357 1 1 19.1796 -27.1084 -9.42814 0 0 0 
358 1 1 20.2943 -25.8265 -9.73078 0 0 0 
359 1 1 21.3218 -24.4934 -10.0196 0 0 0 
360 1 1 22.2599 -23.1153 -10.2942 0 0 0 
361 1 1 23.1067 -21.6987 -10.5541 0 0 0 
362 1 1 23.8609 -20.2498 -10.799 0 0 0 
363 1 1 24.5214 -18.7752 -11.0286 0 0 0 
364 1 1 25.0881 -17.2813 -11.2426 0 0 0 
365 1 1 25.5608 -15.7743 -11.4405 0 0 0 
366 1 1 25.94 -14.2607 -11.6222 0 0 0 
367 1 1 26.2269 -12.7464 -11.7874 0 0 0 
368 1 1 26.4226 -11.2375 -11.9358 0 0 0 
369 1 1 26.5291 -9.73979 -12.0673 0 0 0 
370 1 1 26.5485 -8.25876 -12.1816 0 0 0 
371 1 1 26.4833 -6.79975 -12.2786 0 0 0 
372 1 1 26.3364 -5.36777 -12.3581 0 0 0 
373 1 1 26.111 -3.96756 -12.4201 0 0 0 
374 1 1 25.8106 -2.60354 -12.4645 0 0 0 
375 1 1 25.439 -1.27978 -12.4911 0 0 0 
376 1 1 25 -1.83697e-14 -12.5 0 0 0 
377 1 1 24.4979 1.23244 -12.4911 0 0 0 
378 1 1 23.9369 2.41454 -12.4645 0 0 0 
379 1 1 23.3216 3.54372 -12.4201 0 0 0 
380 1 1 22.6564 4.61773 -12.3581 0 0 0 
381 1 1 21.9459 5.63475 -12.2786 0 0 0 
382 1 1 21.1948 6.59332 -12.1816 0 0 0 
383 1 1 20.4076 7.49236 -12.0673 0 0 0 
384 1 1 19.589 8.33116 -11.9358 0 0 0 
385 1 1 18.7434 9.10939 -11.7874 0 0 0 
386 1 1 17.8753 9.82702 -11.6222 0 0 0 
387 1 1 16.989 10.4844 -11.4405 0 0 0 
388 1 1 16.0886 11.0822 -11.2426 0 0 0 
389 1 1 15.1781 11.6213 -11.0286 0 0 0 
390 1 1 14.2613 12.103 -10.799 0 0 0 
391 1 1 13.3417 12.5287 -10.5541 0 0 0 
392 1 1 12.4227 12.9001 -10.2942 0 0 0 
393 1 1 11.5074 13.2192 -10.0196 0 0 0 
394 1 1 10.5987 13.4879 -9.73078 0 0 0 
395 1 1 9.69899 13.7085 -9.42814 0 0 0 
396 1 1 8.81069 13.8834 -9.11211 0 0 0 
397 1 1 7.93577 14.015 -8.78312 0 0 0 
398 1 1 7.07597 14.1058 -8.44166 0 0 0 
399 1 1 6.23275 14.1583 -8.0882 0 0 0 
400 1 1 5.40727 14.1751 -7.72325 0 0 0 
401 1 1 4.60042 14.1587 -7.34732 0 0 0 
402 1 1 3.81286 14.1115 -6.96095 0 0 0 
403 1 1 3.04497 14.0361 -6.56468 0 0 0 
404 1 1 2.29688 13.9347 -6.15909 0 0 0 
405 1 1 1.56851 13.8095 -5.74475 0 0 0 
406 1 1 0.859581 13.6626 -5.32224 0 0 0 
407 1 1 0.169605 13.496 -4.89217 0 0 0 
408 1 1 -0.502067 13.3114 -4.45515 0 0 0 
409 1 1 -1.15623 13.1104 -4.0118 0 0 0 
410 1 1 -1.79382 12.8943 -3.56274 0 0 0 
411 1 1 -2.41585 12.6643 -3.10862 0 0 0 
412 1 1 -3.02344 12.4215 -2.65009 0 0 0 
413 1 1 -3.61773 12.1665 -2.18779 0 0 0 
414 1 1 -4.19993 11.8998 -1.72238 0 0 0 
415 1 1 -4.77121 11.6218 -1.25452 0 0 0 
416 1 1 -5.33274 11.3327 -0.784881 0 0 0 
417 1 1 -5.88566 11.0321 -0.314126 0 0 0 
418 1 1 -6.431 10.7199 0.157075 0 0 0 
419 1 1 -6.96974 10.3956 0.628054 0 0 0 
420 1 1 -7.50271 10.0583 1.09814 0 0 0 
421 1 1 -8.03063 9.70736 1.56667 0 0 0 
422 1 1 -8.55405 9.34166 2.03296 0 0 0 
423 1 1 -9.07337 8.96006 2.49637 0 0 0 
424 1 1 -9.58878 8.56132 2.95624 0 0 0 
425 1 1 -10.1003 8.14408 3.4119 0 0 0 
426 1 1 -10.6077 7.70692 3.86271 0 0 0 
427 1 1 -11.1105 7.24837 4.30804 0 0 0 
428 1 1 -11.6081 6.76695 4.74724 0 0 0 
429 1 1 -12.0997 6.26117 5.17969 0 0 0 
430 1 1 -12.584 5.72956 5.60479 0 0 0 
431 1 1 -13.0598 5.17074 6.02192 0 0 0 
432 1 1 -13.5254 4.58337 6.43049 0 0 0 
433 1 1 -13.9791 3.96624 6.82993 0 0 0 
434 1 1 -14.4189 3.31826 7.21966 0 0 0 
435 1 1 -14.8424 2.63849 7.59913 0 0 0 
436 1 1 -15.2474 1.92619 7.9678 0 0 0 
437 1 1 -15.6312 1.1808 8.32515 0 0 0 
438 1 1 -15.9911 0.401984 8.67067 0 0 0 
439 1 1 -16.3242 -0.410358 9.00386 0 0 0 
440 1 1 -16.6275 -1.25606 9.32426 0 0 0 
441 1 1 -16.8979 -2.1347 9.63142 0 0 0 
442 1 1 -17.1323 -3.04555 9.92488 0 0 0 
443 1 1 -17.3274 -3.98761 10.2042 0 0 0 
444 1 1 -17.4801 -4.95956 10.4691 0 0 0 
445 1 1 -17.5871 -5.95976 10.7191 0 0 0 
446 1 1 -17.6454 -6.9863 10.9538 0 0 0 
447 1 1 -17.6517 -8.0369 11.173 0 0 0 
448 1 1 -17.6031 -9.10901 11.3763 0 0 0 
449 1 1 -17.4968 -10.1998 11.5635 0 0 0 
450 1 1 -17.3301 -11.306 11.7342 0 0 0 
451 1 1 -17.1004 -12.4242 11.8882 0 0 0 
452 1 1 -16.8055 -13.5507 12.0253 0 0 0 
453 1 1 -16.4433 -14.6814 12.1454 0 0 0 
454 1 1 -16.0121 -15.8122 12.2482 0 0 0 
455 1 1 -15.5104 -16.9385 12.3336 0 0 0 
456 1 1 -14.937 -18.0557 12.4014 0 0 0 
457 1 1 -14.291 -19.1589 12.4517 0 0 0 
458 1 1 -13.5721 -20.2432 12.4842 0 0 0 
459 1 1 -12.7802 -21.3035 12.499 0 0 0 
460 1 1 -11.9155 -22.3344 12.4961 0 0 0 
461 1 1 -10.9787 -23.3309 12.4753 0 0 0 
462 1 1 -9.97092 -24.2875 12.4369 0 0 0 
463 1 1 -8.89373 -25.199 12.3808 0 0 0 
464 1 1 -7.74904 -26.0601 12.3071 0 0 0 
465 1 1 -6.53922 -26.8657 12.2159 0 0 0 
466 1 1 -5.26703 -27.6107 12.1073 0 0 0 
467 1 1 -3.93567 -28.2903 11.9815 0 0 0 
468 1 1 -2.54872 -28.8996 11.8387 0 0 0 
469 1 1 -1.11017 -29.4342 11.6791 0 0 0 
470 1 1 0.375626 -29.8898 11.5029 0 0 0 
471 1 1 1.90395 -30.2624 11.3103 0 0 0 
472 1 1 3.46974 -30.5483 11.1017 0 0 0 
473 1 1 5.06763 -30.7442 10.8773 0 0 0 
474 1 1 6.69194 -30.8472 10.6374 0 0 0 
475 1 1 8.33674 -30.8545 10.3824 0 0 0 
476 1 1 9.99587 -30.7641 10.1127 0 0 0 
477 1 1 11.663 -30.5743 9.82861 0 0 0 
478 1 1 13.3314 -30.2837 9.53053 0 0 0 
479 1 1 14.9947 -29.8915 9.21891 0 0 0 
480 1 1 16.6459 -29.3975 8.8942 0 0 0 
481 1 1 18.2782 -28.8018 8.55684 0 0 0 
482 1 1 19.8848 -28.105 8.20732 0 0 0 
483 1 1 21.4587 -27.3084 7.84614 0 0 0 
484 1 1 22.9934 -26.4136 7.47381 0 0 0 
485 1 1 24.4819 -25.4227 7.09086 0 0 0 
486 1 1 25.9178 -24.3385 6.69783 0 0 0 
487 1 1 27.2947 -23.164 6.29529 0 0 0 
488 1 1 28.6064 -21.9029 5.8838 0 0 0 
489 1 1 29.8469 -20.5593 5.46395 0 0 0 
490 1 1 31.0107 -19.1376 5.03633 0 0 0 
491 1 1 32.0923 -17.6429 4.60156 0 0 0 
492 1 1 33.0868 -16.0803 4.16024 0 0 0 
493 1 1 33.9895 -14.4557 3.71302 0 0 0 
494 1 1 34.7963 -12.775 3.26052 0 0 0 
495 1 1 35.5034 -11.0445 2.80338 0 0 0 
496 1 1 36.1074 -9.27081 2.34227 0 0 0 
497 1 1 36.6056 -7.46079 1.87782 0 0 0 
498 1 1 36.9955 -5.62146 1.4107 0 0 0 
499 1 1 37.2753 -3.76 0.941585 0 0 0 
500 1 1 37.4438 -1.88372 0.471127 0 0 0 
Bonds

1 1 1 2
2 1 2 3
3 1 3 4
4 1 4 5
5 1 5 6
6 1 6 7
7 1 7 8
8 1 8 9
9 1 9 10
10 1 10 11
11 1 11 12
12 1 12 13
13 1 13 14
14 1 14 15
15 1 15 16
16 1 16 17
17 1 17 18
18 1 18 19
19 1 19 20
20 1 20 21
21 1 21 22
22 1 22 23
23 1 23 24
24 1 24 25
25 1 25 26
26 1 26 27
27 1 27 28
28 1 28 29
29 1 29 30
30 1 30 31
31 1 31 32
32 1 32 33
33 1 33 34
34 1 34 35
35 1 35 36
36 1 36 37
37 1 37 38
38 1 38 39
39 1 39 40
40 1 40 41
41 1 41 42
42 1 42 43
43 1 43 44
44 1 44 45
45 1 45 46
46 1 46 47
47 1 47 48
48 1 48 49
49 1 49 50
50 1 50 51
51 1 51 52
52 1 52 53
53 1 53 54
54 1 54 55
55 1 55 56
56 1 56 57
57 1 57 58
58 1 58 59
59 1 59 60
60 1 60 61
61 1 61 62
62 1 62 63
63 1 63 64
64 1 64 65
65 1 65 66
66 1 66 67
67 1 67 68
68 1 68 69
69 1 69 70
70 1 70 71
71 1 71 72
72 1 72 73
73 1 73 74
74 1 74 75
75 1 75 76
76 1 76 77
77 1 77 78
78 1 78 79
79 1 79 80
80 1 80 81
81 1 81 82
82 1 82 83
83 1 83 84
84 1 84 85
85 1 85 86
86 1 86 87
87 1 87 88
88 1 88 89
89 1 89 90
90 1 90 91
91 1 91 92
92 1 92 93
93 1 93 94
94 1 94 95
95 1 95 96
96 1 96 97
97 1 97 98
98 1 98 99
99 1 99 100
100 1 100 101
101 1 101 102
102 1 102 103
103 1 103 104
104 1 104 105
105 1 105 106
106 1 106 107
107 1 107 108
108 1 108 109
109 1 109 110
110 1 110 111
111 1 111 112
112 1 112 113
113 1 113 114
114 1 114 115
115 1 115 116
116 1 116 117
117 1 117 118
118 1 118 119
119 1 119 120
120 1 120 121
121 1 121 122
122 1 122 123
123 1 123 124
124 1 124 125
125 1 125 126
126 1 126 127
127 1 127 128
128 1 128 129
129 1 129 130
130 1 130 131
131 1 131 132
132 1 132 133
133 1 133 134
134 1 134 135
135 1 135 136
136 1 136 137
137 1 137 138
138 1 138 139
139 1 139 140
140 1 140 141
141 1 141 142
142 1 142 143
143 1 143 144
144 1 144 145
145 1 145 146
146 1 146 147
147 1 147 148
148 1 148 149
149 1 149 150
150 1 150 151
151 1 151 152
152 1 152 153
153 1 153 154
154 1 154 155
155 1 155 156
156 1 156 157
157 1 157 158
158 1 158 159
159 1 159 160
160 1 160 161
161 1 161 162
162 1 162 163
163 1 163 164
164 1 164 165
165 1 165 166
166 1 166 167
167 1 167 168
168 1 168 169
169 1 169 170
170 1 170 171
171 1 171 172
172 1 172 173
173 1 173 174
174 1 174 175
175 1 175 176
176 1 176 177
177 1 177 178
178 1 178 179
179 1 179 180
180 1 180 181
181 1 181 182
182 1 182 183
183 1 183 184
184 1 184 185
185 1 185 186
186 1 186 187
187 1 187 188
188 1 188 189
189 1 189 190
190 1 190 191
191 1 191 192
192 1 192 193
193 1 193 194
194 1 194 195
195 1 195 196
196 1 196 197
197 1 197 198
198 1 198 199
199 1 199 200
200 1 200 201
201 1 201 202
202 1 202 203
203 1 203 204
204 1 204 205
205 1 205 206
206 1 206 207
207 1 207 208
208 1 208 209
209 1 209 210
210 1 210 211
211 1 211 212
212 1 212 213
213 1 213 214
214 1 214 215
215 1 215 216
216 1 216 217
217 1 217 218
218 1 218 219
219 1 219 220
220 1 220 221
221 1 221 222
222 1 222 223
223 1 223 224
224 1 224 225
225 1 225 226
226 1 226 227
227 1 227 228
228 1 228 229
229 1 229 230
230 1 230 231
231 1 231 232
232 1 232 233
233 1 233 234
234 1 234 235
235 1 235 236
236 1 236 237
237 1 237 238
238 1 238 239
239 1 239 240
240 1 240 241
241 1 241 242
242 1 242 243
243 1 243 244
244 1 244 245
245 1 245 246
246 1 246 247
247 1 247 248
248 1 248 249
249 1 249 250
250 1 250 251
251 1 251 252
252 1 252 253
253 1 253 254
254 1 254 255
255 1 255 256
256 1 256 257
257 1 257 258
258 1 258 259
259 1 259 260
260 1 260 261
261 1 261 262
262 1 262 263
263 1 263 264
264 1 264 265
265 1 265 266
266 1 266 267
267 1 267 268
268 1 268 269
269 1 269 270
270 1 270 271
271 1 271 272
272 1 272 273
273 1 273 274
274 1 274 275
275 1 275 276
276 1 276 277
277 1 277 278
278 1 278 279
279 1 279 280
280 1 280 281
281 1 281 282
282 1 282 283
283 1 283 284
284 1 284 285
285 1 285 286
286 1 286 287
287 1 287 288
288 1 288 289
289 1 289 290
290 1 290 291
291 1 291 292
292 1 292 293
293 1 293 294
294 1 294 295
295 1 295 296
296 1 296 297
297 1 297 298
298 1 298 299
299 1 299 300
300 1 300 301
301 1 301 302
302 1 302 303
303 1 303 304
304 1 304 305
305 1 305 306
306 1 306 307
307 1 307 308
308 1 308 309
309 1 309 310
310 1 310 311
311 1 311 312
312 1 312 313
313 1 313 314
314 1 314 315
315 1 315 316
316 1 316 317
317 1 317 318
318 1 318 319
319 1 319 320
320 1 320 321
321 1 321 322
322 1 322 323
323 1 323 324
324 1 324 325
325 1 325 326
326 1 326 327
327 1 327 328
328 1 328 329
329 1 329 330
330 1 330 331
331 1 331 332
332 1 332 333
333 1 333 334
334 1 334 335
335 1 335 336
336 1 336 337
337 1 337 338
338 1 338 339
339 1 339 340
340 1 340 341
341 1 341 342
342 1 342 343
343 1 343 344
344 1 344 345
345 1 345 346
346 1 346 347
347 1 347 348
348 1 348 349
349 1 349 350
350 1 350 351
351 1 351 352
352 1 352 353
353 1 353 354
354 1 354 355
355 1 355 356
356 1 356 357
357 1 357 358
358 1 358 359
359 1 359 360
360 1 360 361
361 1 361 362
362 1 362 363
363 1 363 364
364 1 364 365
365 1 365 366
366 1 366 367
367 1 367 368
368 1 368 369
369 1 369 370
370 1 370 371
371 1 371 372
372 1 372 373
373 1 373 374
374 1 374 375
375 1 375 376
376 1 376 377
377 1 377 378
378 1 378 379
379 1 379 380
380 1 380 381
381 1 381 382
382 1 382 383
383 1 383 384
384 1 384 385
385 1 385 386
386 1 386 387
387 1 387 388
388 1 388 389
389 1 389 390
390 1 390 391
391 1 391 392
392 1 392 393
393 1 393 394
394 1 394 395
395 1 395 396
396 1 396 397
397 1 397 398
398 1 398 399
399 1 399 400
400 1 400 401
401 1 401 402
402 1 402 403
403 1 403 404
404 1 404 405
405 1 405 406
406 1 406 407
407 1 407 408
408 1 408 409
409 1 409 410
410 1 410 411
411 1 411 412
412 1 412 413
413 1 413 414
414 1 414 415
415 1 415 416
416 1 416 417
417 1 417 418
418 1 418 419
419 1 419 420
420 1 420 421
421 1 421 422
422 1 422 423
423 1 423 424
424 1 424 425
425 1 425 426
426 1 426 427
427 1 427 428
428 1 428 429
429 1 429 430
430 1 430 431
431 1 431 432
432 1 432 433
433 1 433 434
434 1 434 435
435 1 435 436
436 1 436 437
437 1 437 438
438 1 438 439
439 1 439 440
440 1 440 441
441 1 441 442
442 1 442 443
443 1 443 444
444 1 444 445
445 1 445 446
446 1 446 447
447 1 447 448
448 1 448 449
449 1 449 450
450 1 450 451
451 1 451 452
452 1 452 453
453 1 453 454
454 1 454 455
455 1 455 456
456 1 456 457
457 1 457 458
458 1 458 459
459 1 459 460
460 1 460 461
461 1 461 462
462 1 462 463
463 1 463 464
464 1 464 465
465 1 465 466
466 1 466 467
467 1 467 468
468 1 468 469
469 1 469 470
470 1 470 471
471 1 471 472
472 1 472 473
473 1 473 474
474 1 474 475
475 1 475 476
476 1 476 477
477 1 477 478
478 1 478 479
479 1 479 480
480 1 480 481
481 1 481 482
482 1 482 483
483 1 483 484
484 1 484 485
485 1 485 486
486 1 486 487
487 1 487 488
488 1 488 489
489 1 489 490
490 1 490 491
491 1 491 492
492 1 492 493
493 1 493 494
494 1 494 495
495 1 495 496
496 1 496 497
497 1 497 498
498 1 498 499
499 1 499 500
500 1 500 1

Angles

1 1 1 2 3
2 1 2 3 4
3 1 3 4 5
4 1 4 5 6
5 1 5 6 7
6 1 6 7 8
7 1 7 8 9
8 1 8 9 10
9 1 9 10 11
10 1 10 11 12
11 1 11 12 13
12 1 12 13 14
13 1 13 14 15
14 1 14 15 16
15 1 15 16 17
16 1 16 17 18
17 1 17 18 19
18 1 18 19 20
19 1 19 20 21
20 1 20 21 22
21 1 21 22 23
22 1 22 23 24
23 1 23 24 25
24 1 24 25 26
25 1 25 26 27
26 1 26 27 28
27 1 27 28 29
28 1 28 29 30
29 1 29 30 31
30 1 30 31 32
31 1 31 32 33
32 1 32 33 34
33 1 33 34 35
34 1 34 35 36
35 1 35 36 37
36 1 36 37 38
37 1 37 38 39
38 1 38 39 40
39 1 39 40 41
40 1 40 41 42
41 1 41 42 43
42 1 42 43 44
43 1 43 44 45
44 1 44 45 46
45 1 45 46 47
46 1 46 47 48
47 1 47 48 49
48 1 48 49 50
49 1 49 50 51
50 1 50 51 52
51 1 51 52 53
52 1 52 53 54
53 1 53 54 55
54 1 54 55 56
55 1 55 56 57
56 1 56 57 58
57 1 57 58 59
58 1 58 59 60
59 1 59 60 61
60 1 60 61 62
61 1 61 62 63
62 1 62 63 64
63 1 63 64 65
64 1 64 65 66
65 1 65 66 67
66 1 66 67 68
67 1 67 68 69
68 1 68 69 70
69 1 69 70 71
70 1 70 71 72
71 1 71 72 73
72 1 72 73 74
73 1 73 74 75
74 1 74 75 76
75 1 75 76 77
76 1 76 77 78
77 1 77 78 79
78 1 78 79 80
79 1 79 80 81
80 1 80 81 82
81 1 81 82 83
82 1 82 83 84
83 1 83 84 85
84 1 84 85 86
85 1 85 86 87
86 1 86 87 88
87 1 87 88 89
88 1 88 89 90
89 1 89 90 91
90 1 90 91 92
91 1 91 92 93
92 1 92 93 94
93 1 93 94 95
94 1 94 95 96
95 1 95 96 97
96 1 96 97 98
97 1 97 98 99
98 1 98 99 100
99 1 99 100 101
100 1 100 101 102
101 1 101 102 103
102 1 102 103 104
103 1 103 104 105
104 1 104 105 106
105 1 105 106 107
106 1 106 107 108
107 1 107 108 109
108 1 108 109 110
109 1 109 110 111
110 1 110 111 112
111 1 111 112 113
112 1 112 113 114
113 1 113 114 115
114 1 114 115 116
115 1 115 116 117
116 1 116 117 118
117 1 117 118 119
118 1 118 119 120
119 1 119 120 121
120 1 120 121 122
121 1 121 122 123
122 1 122 123 124
123 1 123 124 125
124 1 124 125 126
125 1 125 126 127
126 1 126 127 128
127 1 127 128 129
128 1 128 129 130
129 1 129 130 131
130 1 130 131 132
131 1 131 132 133
132 1 132 133 134
133 1 133 134 135
134 1 134 135 136
135 1 135 136 137
136 1 136 137 138
137 1 137 138 139
138 1 138 139 140
139 1 139 140 141
140 1 140 141 142
141 1 141 142 143
142 1 142 143 144
143 1 143 144 145
144 1 144 145 146
145 1 145 146 147
146 1 146 147 148
147 1 147 148 149
148 1 148 149 150
149 1 149 150 151
150 1 150 151 152
151 1 151 152 153
152 1 152 153 154
153 1 153 154 155
154 1 154 155 156
155 1 155 156 157
156 1 156 157 158
157 1 157 158 159
158 1 158 159 160
159 1 159 160 161
160 1 160 161 162
161 1 161 162 163
162 1 162 163 164
163 1 163 164 165
164 1 164 165 166
165 1 165 166 167
166 1 166 167 168
167 1 167 168 169
168 1 168 169 170
169 1 169 170 171
170 1 170 171 172
171 1 171 172 173
172 1 172 173 174
173 1 173 174 175
174 1 174 175 176
175 1 175 176 177
176 1 176 177 178
177 1 177 178 179
178 1 178 179 180
179 1 179 180 181
180 1 180 181 182
181 1 181 182 183
182 1 182 183 184
183 1 183 184 185
184 1 184 185 186
185 1 185 186 187
186 1 186 187 188
187 1 187 188 189
188 1 188 189 190
189 1 189 190 191
190 1 190 191 192
191 1 191 192 193
192 1 192 193 194
193 1 193 194 195
194 1 194 195 196